 Entering Gaussian System, Link 0=g16
 *******************************************
 Gaussian 16:  ES64L-G16RevC.01
 # SYNTHETIC-BUT-SCHEMA-FAITHFUL fixture: trimmed to the lines the parser walks for
 # (multiple 'SCF Done' optimization steps + the thermochemistry 'Free Energies' line).
 # Energies are illustrative, not from a real molecule.
 #p B3LYP/6-31G(d,p) Opt SCF=Tight
 ---------------------------------------------------------------------

 Step number   1 out of a maximum of   20
 SCF Done:  E(RB3LYP) =  -250.120004567     A.U. after   12 cycles
            NFock= 12  Conv=0.34D-08     -V/T= 2.0091

 Step number   2 out of a maximum of   20
 SCF Done:  E(RB3LYP) =  -250.123456789     A.U. after    9 cycles
            NFock=  9  Conv=0.21D-08     -V/T= 2.0090

    Item               Value     Threshold  Converged?
 Maximum Force            0.000012     0.000450     YES
 RMS     Force            0.000004     0.000300     YES
 Optimization completed.

 Zero-point correction=                           0.098765 (Hartree/Particle)
 Thermal correction to Gibbs Free Energy=         0.071234
 Sum of electronic and zero-point Energies=           -250.024692
 Sum of electronic and thermal Free Energies=         -250.052223

 Normal termination of Gaussian 16 at Wed Jun 18 02:00:00 2026.
