      -----------------------------------------------------------      
     |                   =====================                   |     
     |                           x T B                           |     
     |                   =====================                   |     
     |                         S. Grimme                         |     
     |          Mulliken Center for Theoretical Chemistry        |     
     |                    University of Bonn                     |     
      -----------------------------------------------------------      

   * xtb version 6.4.1 (afa7bdf) compiled by 'ehlert@majestix' on 2021-06-10

   xtb is free software: you can redistribute it and/or modify it under
   the terms of the GNU Lesser General Public License as published by
   the Free Software Foundation, either version 3 of the License, or
   (at your option) any later version.
   
   xtb is distributed in the hope that it will be useful,
   but WITHOUT ANY WARRANTY; without even the implied warranty of
   MERCHANTABILITY or FITNESS FOR A PARTICULAR PURPOSE.  See the
   GNU Lesser General Public License for more details.
   
   Cite this work as:
   * C. Bannwarth, E. Caldeweyher, S. Ehlert, A. Hansen, P. Pracht,
     J. Seibert, S. Spicher, S. Grimme, WIREs Comput. Mol. Sci., 2020, 11,
     e01493. DOI: 10.1002/wcms.1493
   
   for GFN2-xTB:
   * C. Bannwarth, S. Ehlert and S. Grimme., J. Chem. Theory Comput., 2019,
     15, 1652-1671. DOI: 10.1021/acs.jctc.8b01176
   for GFN1-xTB:
   * S. Grimme, C. Bannwarth, P. Shushkov, J. Chem. Theory Comput., 2017,
     13, 1989-2009. DOI: 10.1021/acs.jctc.7b00118
   for GFN0-xTB:
   * P. Pracht, E. Caldeweyher, S. Ehlert, S. Grimme, ChemRxiv, 2019, preprint.
     DOI: 10.26434/chemrxiv.8326202.v1
   for GFN-FF:
   * S. Spicher and S. Grimme, Angew. Chem. Int. Ed., 2020, 59, 15665-15673.
     DOI: 10.1002/anie.202004239
   
   for DFT-D4:
   * E. Caldeweyher, C. Bannwarth and S. Grimme, J. Chem. Phys., 2017,
     147, 034112. DOI: 10.1063/1.4993215
   * E. Caldeweyher, S. Ehlert, A. Hansen, H. Neugebauer, S. Spicher,
     C. Bannwarth and S. Grimme, J. Chem. Phys., 2019, 150, 154122.
     DOI: 10.1063/1.5090222
   * E. Caldeweyher, J.-M. Mewes, S. Ehlert and S. Grimme, Phys. Chem. Chem. Phys.
     2020, 22, 8499-8512. DOI: 10.1039/D0CP00502A
   
   for sTDA-xTB:
   * S. Grimme and C. Bannwarth, J. Chem. Phys., 2016, 145, 054103.
     DOI: 10.1063/1.4959605
   
   in the mass-spec context:
   * V. Asgeirsson, C. Bauer and S. Grimme, Chem. Sci., 2017, 8, 4879.
     DOI: 10.1039/c7sc00601b
   * J. Koopman and S. Grimme, ACS Omega 2019, 4, 12, 15120-15133.
     DOI: 10.1021/acsomega.9b02011
   
   for metadynamics refer to:
   * S. Grimme, J. Chem. Theory Comput., 2019, 155, 2847-2862
     DOI: 10.1021/acs.jctc.9b00143
   
   for SPH calculations refer to:
   * S. Spicher and S. Grimme, J. Chem. Theory Comput., 2021, 17, 1701-1714
     DOI: 10.1021/acs.jctc.0c01306
   
   with help from (in alphabetical order)
   P. Atkinson, C. Bannwarth, F. Bohle, G. Brandenburg, E. Caldeweyher
   M. Checinski, S. Dohm, S. Ehlert, S. Ehrlich, I. Gerasimov, J. Koopman
   C. Lavigne, S. Lehtola, F. März, M. Müller, F. Musil, H. Neugebauer
   J. Pisarek, C. Plett, P. Pracht, J. Seibert, P. Shushkov, S. Spicher
   M. Stahn, M. Steiner, T. Strunk, J. Stückrath, T. Rose, and J. Unsleber
   
 * started run on 2026/06/19 at 13:53:43.472     

           -------------------------------------------------
          |                Calculation Setup                |
           -------------------------------------------------

          program call               : xtb input.xyz --gfn 2 --chrg 1 --uhf 1 --iterations 500 --etemp 400.0 --json
          hostname                   : compute-1-4.local
          coordinate file            : input.xyz
          omp threads                :                     4
          number of atoms            :                     9
          number of electrons        :                    25
          charge                     :                     1
          spin                       :                   0.5
          first test random number   :      0.05200875709799

   ID    Z sym.   atoms
    1    6 C      1-3, 5
    2   16 S      4
    3    1 H      6-9

           -------------------------------------------------
          |                 G F N 2 - x T B                 |
           -------------------------------------------------

        Reference                      10.1021/acs.jctc.8b01176
      * Hamiltonian:
        H0-scaling (s, p, d)           1.850000    2.230000    2.230000
        zeta-weighting                 0.500000
      * Dispersion:
        s8                             2.700000
        a1                             0.520000
        a2                             5.000000
        s9                             5.000000
      * Repulsion:
        kExp                           1.500000    1.000000
        rExp                           1.000000
      * Coulomb:
        alpha                          2.000000
        third order                    shell-resolved
        anisotropic                    true
        a3                             3.000000
        a5                             4.000000
        cn-shift                       1.200000
        cn-exp                         4.000000
        max-rad                        5.000000


          ...................................................
          :                      SETUP                      :
          :.................................................:
          :  # basis functions                  30          :
          :  # atomic orbitals                  29          :
          :  # shells                           15          :
          :  # electrons                        25          :
          :  max. iterations                   500          :
          :  Hamiltonian                  GFN2-xTB          :
          :  restarted?                      false          :
          :  GBSA solvation                  false          :
          :  PC potential                    false          :
          :  electronic temp.          400.0000000     K    :
          :  accuracy                    1.0000000          :
          :  -> integral cutoff          0.2500000E+02      :
          :  -> integral neglect         0.1000000E-07      :
          :  -> SCF convergence          0.1000000E-05 Eh   :
          :  -> wf. convergence          0.1000000E-03 e    :
          :  Broyden damping             0.4000000          :
          ...................................................

 iter      E             dE          RMSdq      gap      omega  full diag
   1    -13.4785293 -0.134785E+02  0.576E+00    3.96       0.0  T
   2    -13.4752336  0.329566E-02  0.548E+00    4.00       1.0  T
   3    -13.4953165 -0.200829E-01  0.307E+00    4.00       1.0  T
   4    -13.4590930  0.362236E-01  0.368E+00    4.14       1.0  T
   5    -13.5050779 -0.459849E-01  0.131E+00    4.11       1.0  T
   6    -13.5089926 -0.391473E-02  0.170E-01    4.10       1.0  T
   7    -13.5090338 -0.412083E-04  0.352E-02    4.11       1.0  T
   8    -13.5090336  0.230350E-06  0.114E-02    4.11       2.9  T
   9    -13.5090330  0.656052E-06  0.276E-02    4.11       1.2  T
  10    -13.5090341 -0.119047E-05  0.458E-03    4.11       7.3  T
  11    -13.5090341  0.259910E-08  0.645E-03    4.11       5.2  T
  12    -13.5090342 -0.621170E-07  0.247E-03    4.11      13.5  T
  13    -13.5090342 -0.112749E-07  0.537E-04    4.11      62.1  T
  14    -13.5090342 -0.532701E-09  0.182E-04    4.11     183.4  T

   *** convergence criteria satisfied after 14 iterations ***

         #    Occupation            Energy/Eh            Energy/eV
      -------------------------------------------------------------
         1        2.0000           -0.9692802             -26.3755
       ...           ...                  ...                  ...
         7        2.0000           -0.7165093             -19.4972
         8        2.0000           -0.6959140             -18.9368
         9        2.0000           -0.6933801             -18.8678
        10        2.0000           -0.6814411             -18.5430
        11        2.0000           -0.6697393             -18.2245
        12        1.5462           -0.6284794             -17.1018
        13        1.4538           -0.6280103             -17.0890 (HOMO)
        14                         -0.4770395             -12.9809 (LUMO)
        15                         -0.4134239             -11.2498
        16                         -0.4077139             -11.0945
        17                         -0.3358421              -9.1387
        18                         -0.2095453              -5.7020
       ...                                ...                  ...
        29                          0.4534693              12.3395
      -------------------------------------------------------------
                  HL-Gap            0.1509708 Eh            4.1081 eV
             Fermi-level           -0.5903849 Eh          -16.0652 eV

 SCC (total)                   0 d,  0 h,  0 min,  0.010 sec
 SCC setup                      ...        0 min,  0.000 sec (  2.297%)
 Dispersion                     ...        0 min,  0.000 sec (  0.991%)
 classical contributions        ...        0 min,  0.000 sec (  0.429%)
 integral evaluation            ...        0 min,  0.001 sec ( 12.504%)
 iterations                     ...        0 min,  0.007 sec ( 63.318%)
 molecular gradient             ...        0 min,  0.002 sec ( 19.013%)
 printout                       ...        0 min,  0.000 sec (  1.029%)

         :::::::::::::::::::::::::::::::::::::::::::::::::::::
         ::                     SUMMARY                     ::
         :::::::::::::::::::::::::::::::::::::::::::::::::::::
         :: total energy             -13.307954433186 Eh    ::
         :: gradient norm              0.018764421606 Eh/a0 ::
         :: HOMO-LUMO gap              4.108125819154 eV    ::
         ::.................................................::
         :: SCC energy               -13.509034216090 Eh    ::
         :: -> isotropic ES            0.104162108689 Eh    ::
         :: -> anisotropic ES         -0.011684645094 Eh    ::
         :: -> anisotropic XC          0.010979646902 Eh    ::
         :: -> dispersion             -0.005413174166 Eh    ::
         :: repulsion energy           0.201077905568 Eh    ::
         :: add. restraining           0.000000000000 Eh    ::
         :: total charge               1.000000000000 e     ::
         :::::::::::::::::::::::::::::::::::::::::::::::::::::

           -------------------------------------------------
          |                Property Printout                |
           -------------------------------------------------

    * Orbital Energies and Occupations

         #    Occupation            Energy/Eh            Energy/eV
      -------------------------------------------------------------
         1        2.0000           -0.9692802             -26.3755
         2        2.0000           -0.8749632             -23.8090
         3        2.0000           -0.8416156             -22.9015
         4        2.0000           -0.7941268             -21.6093
         5        2.0000           -0.7778801             -21.1672
         6        2.0000           -0.7522492             -20.4697
         7        2.0000           -0.7165093             -19.4972
         8        2.0000           -0.6959140             -18.9368
         9        2.0000           -0.6933801             -18.8678
        10        2.0000           -0.6814411             -18.5430
        11        2.0000           -0.6697393             -18.2245
        12        1.5462           -0.6284794             -17.1018
        13        1.4538           -0.6280103             -17.0890 (HOMO)
        14                         -0.4770395             -12.9809 (LUMO)
        15                         -0.4134239             -11.2498
        16                         -0.4077139             -11.0945
        17                         -0.3358421              -9.1387
        18                         -0.2095453              -5.7020
        19                         -0.1868826              -5.0853
        20                         -0.1803781              -4.9083
        21                         -0.0985891              -2.6827
        22                         -0.0623545              -1.6968
        23                         -0.0156275              -0.4252
        24                          0.0046464               0.1264
       ...                                ...                  ...
        29                          0.4534693              12.3395
      -------------------------------------------------------------
                  HL-Gap            0.1509708 Eh            4.1081 eV
             Fermi-level           -0.5903849 Eh          -16.0652 eV

     #   Z          covCN         q      C6AA      α(0)
     1   6 C        3.097     0.015    27.548     8.602
     2   6 C        3.097     0.015    27.548     8.602
     3   6 C        2.930    -0.017    28.437     8.745
     4  16 S        2.288     0.436   124.528    18.782
     5   6 C        2.930    -0.017    28.437     8.745
     6   1 H        0.925     0.140     1.459     1.889
     7   1 H        0.925     0.140     1.459     1.889
     8   1 H        0.926     0.143     1.439     1.876
     9   1 H        0.926     0.143     1.439     1.876

 Mol. C6AA /au·bohr⁶  :       1377.606553
 Mol. C8AA /au·bohr⁸  :      43488.669921
 Mol. α(0) /au        :         61.005293


Wiberg/Mayer (AO) data.
largest (>0.10) Wiberg bond orders for each atom

 ---------------------------------------------------------------------------
     #   Z sym  total        # sym  WBO       # sym  WBO       # sym  WBO
 ---------------------------------------------------------------------------
     1   6 C    3.711 --     5 C    1.482     2 C    1.236     6 H    0.947
     2   6 C    3.711 --     3 C    1.482     1 C    1.236     7 H    0.947
     3   6 C    3.695 --     2 C    1.482     4 S    1.202     8 H    0.952
     4  16 S    2.508 --     5 C    1.202     3 C    1.202
     5   6 C    3.695 --     1 C    1.482     4 S    1.202     9 H    0.952
     6   1 H    0.980 --     1 C    0.947
     7   1 H    0.980 --     2 C    0.947
     8   1 H    0.979 --     3 C    0.952
     9   1 H    0.979 --     5 C    0.952
 ---------------------------------------------------------------------------

Topologies differ in total number of bonds
Writing topology from bond orders to xtbtopo.mol

molecular dipole:
                 x           y           z       tot (Debye)
 q only:        0.012       0.984       0.110
   full:        0.010       0.874       0.098       2.236
molecular quadrupole (traceless):
                xx          xy          yy          xz          yz          zz
 q only:        2.650      -0.124       4.565       1.328       1.322      -7.215
  q+dip:        4.448      -0.198       4.337       1.773       1.469      -8.785
   full:        3.480      -0.154       3.194       1.360       1.104      -6.674


           -------------------------------------------------
          | TOTAL ENERGY              -13.307954433186 Eh   |
          | GRADIENT NORM               0.018764421606 Eh/α |
          | HOMO-LUMO GAP               4.108125819154 eV   |
           -------------------------------------------------

------------------------------------------------------------------------
 * finished run on 2026/06/19 at 13:53:43.506     
------------------------------------------------------------------------
 total:
 * wall-time:     0 d,  0 h,  0 min,  0.034 sec
 *  cpu-time:     0 d,  0 h,  0 min,  0.102 sec
 * ratio c/w:     2.979 speedup
 SCF:
 * wall-time:     0 d,  0 h,  0 min,  0.011 sec
 *  cpu-time:     0 d,  0 h,  0 min,  0.043 sec
 * ratio c/w:     3.998 speedup

